% Model:              magnetic_field_compensation_geo_extended_2.mph
% Version:            COMSOL 5.4.0.346
% Date:               Aug 17 2020, 15:50
% Dimension:          3
% Nodes:              9261
% Expressions:        3
% Description:        Magnetic flux density, x component, Magnetic flux density, y component, Magnetic flux density, z component
% Length unit:        cm
% X                       Y                        Z                        mf.Bx (mG)               mf.By (mG)               mf.Bz (mG)
-50                       -50                      -50                      -483.74096080335227      170.75969129011247       -44.16545174114033
-45                       -50                      -50                      -472.1817158339952       179.61805183299376       -38.42757461618027
-40                       -50                      -50                      -461.14866902377725      192.2410457440059        -31.896037234150437
-35                       -50                      -50                      -441.515129502263        198.38026590074105       -33.71776057215661
-30                       -50                      -50                      -421.13936427405815      205.1750781614529        -28.609404834207183
-25                       -50                      -50                      -400.7635990458556       211.96989042216364       -23.50104909626006
-20                       -50                      -50                      -378.4870958687211       222.72461882190473       -13.990410194619747
-15                       -50                      -50                      -351.29140308520374      227.9078285473727        -9.819190441492157
-10                       -50                      -50                      -322.63606001151345      236.00947220106758       -9.681248119000001
-5                        -50                      -50                      -289.2097739580222       239.90892127339345       -6.539730937564434
0                         -50                      -50                      -251.98972722572861      247.91854464193656       5.654435406839364
5                         -50                      -50                      -213.8581080991259       246.89507924591322       8.791019895942902
10                        -50                      -50                      -176.514916573114        253.86872671380988       6.6926203672582725
15                        -50                      -50                      -131.3405224321372       250.46098809844224       13.515154381593184
20                        -50                      -50                      -82.26323810218855       244.03535982829064       7.071418904690552
25                        -50                      -50                      -43.78170723006781       230.32067451571947       5.528503642484561
30                        -50                      -50                      4.447624664781734        215.9330752703263        2.9992383486873875
35                        -50                      -50                      43.189644152408384       191.75599847101535       -12.870150798608455
40                        -50                      -50                      74.94683966937527        174.01092951300325       -34.364925429016175
45                        -50                      -50                      99.54307576296364        152.11932860930256       -55.09370936894386
50                        -50                      -50                      108.64451932713168       123.62679773380914       -72.18135958203044
-50                       -45                      -50                      -482.4695045529742       164.15197232041584       -35.97429319987628
-45                       -45                      -50                      -469.9262547750196       174.79882610447564       -32.622154103784965
-40                       -45                      -50                      -454.7230605340475       184.75778119768003       -30.295399208540797
-35                       -45                      -50                      -435.3442560011382       189.5658746590238        -24.578705852770934
-30                       -45                      -50                      -415.96545146822893      194.37396812036812       -18.862012497000528
-25                       -45                      -50                      -394.15742307383204      201.61248270413978       -19.84902109351893
-20                       -45                      -50                      -372.0320830970773       212.2136828853154        -11.070929964627997
-15                       -45                      -50                      -346.056806595292        215.55713756085572       -6.063681016103644
-10                       -45                      -50                      -318.0932420309413       221.03282959930297       -5.009027586311266
-5                        -45                      -50                      -286.4888176376361       227.43301605059932       0.06449554332636223
0                         -45                      -50                      -250.53676911311067      228.8512489993574        8.49785848903493
5                         -45                      -50                      -212.405149986507        227.8277836033338        11.634442978138875
10                        -45                      -50                      -174.27353085990413      226.80431820731036       14.771027467243057
15                        -45                      -50                      -135.19464819196799      229.12506065698028       15.742838882657603
20                        -45                      -50                      -91.37932829264507       217.65013249938778       12.236427188856286
25                        -45                      -50                      -45.230537585268664      207.7848585235337        12.729696956668628
30                        -45                      -50                      -6.301333564450484       201.68402500219014       7.045775055606507
35                        -45                      -50                      28.384830740296465       177.57176716502977       -12.65347814534673
40                        -45                      -50                      58.981036448970436       161.13180382936713       -27.031766036634703
45                        -45                      -50                      82.79417498519042        141.93049139020937       -56.35217293566581
50                        -45                      -50                      88.33726264002826        120.93959521134634       -72.5429528714379
-50                       -40                      -50                      -477.16477773159824      157.59394086204125       -33.48556888408233
-45                       -40                      -50                      -463.14085402468675      162.7188516145506        -27.243350343539618
-40                       -40                      -50                      -448.12382153569877      172.79021523666512       -26.185586630331734
-35                       -40                      -50                      -429.0142256648303       181.63466406785258       -22.907242112990236
-30                       -40                      -50                      -409.63542113192153      186.4427575291973        -17.19054875721983
-25                       -40                      -50                      -389.7690424359247       192.55445585457812       -5.847959605555838
-20                       -40                      -50                      -366.48483351527295      201.2544411521841        -2.8313807242850118
-15                       -40                      -50                      -340.82221010537916      203.20644657433903       -2.308171590714096
-10                       -40                      -50                      -313.381513157722        205.7226224495804        1.011012266790754
-5                        -40                      -50                      -281.9459996570635       212.45637344883417       4.736716076014284
0                         -40                      -50                      -245.59906694125772      215.0835808242967        14.601629750922935
5                         -40                      -50                      -206.75606687550055      215.8243181862673        17.13424558259712
10                        -40                      -50                      -172.8205727472861       207.73702256473106       17.614450549438857
15                        -40                      -50                      -139.03784029507872      206.40691766467162       21.560461222732982
20                        -40                      -50                      -97.82927069539377       197.75856310516892       15.546478361679698
25                        -40                      -50                      -55.97949581450086       193.53580825539774       16.77623366358765
30                        -40                      -50                      -17.050291793682494      187.43497473405398       11.092311762524979
35                        -40                      -50                      19.155788979723688       171.272277196713         -9.879740582317828
40                        -40                      -50                      40.435257699502564       150.6474842071582        -28.266296754525566
45                        -40                      -50                      61.502456234230564       138.64065745432376       -37.799062912614716
50                        -40                      -50                      75.8889358918364         120.12047462724946       -61.037359840215984
-50                       -35                      -50                      -475.41523461371077      150.12958333304243       -25.876347487736815
-45                       -35                      -50                      -457.836127203311        156.16082015617687       -24.75462602774649
-40                       -35                      -50                      -442.3744299122329       160.64394527058715       -19.762399112394437
-35                       -35                      -50                      -427.09935733299966      173.3590909918772        -15.499498346903872
-30                       -35                      -50                      -406.9482579421342       181.39184081192425       -12.049812578117782
-25                       -35                      -50                      -385.5075425512742       184.1673152249771        -4.428924662146661
-20                       -35                      -50                      -363.2928296692804       191.09392092030964       -1.4547943805339174
-15                       -35                      -50                      -336.02809916028093      189.88462831412872       5.301880159458536
-10                       -35                      -50                      -308.9845896037098       192.35943143879157       8.807227659417872
-5                        -35                      -50                      -279.59081382316396      193.10149917342255       21.898864492498895
0                         -35                      -50                      -247.8457808462492       197.71358341528025       24.496919169191656
5                         -35                      -50                      -214.78449168316254      198.52909848515867       28.64563376634424
10                        -35                      -50                      -179.64026797376425      196.0898645500292        32.948369426757196
15                        -35                      -50                      -141.43807159379796      192.16057664088146       35.63580421717294
20                        -35                      -50                      -98.99923120726596       186.99218045020032       36.31777364249421
25                        -35                      -50                      -58.892356840666885      181.02192166622945       26.707037671771097
30                        -35                      -50                      -28.92948146310898       172.49060650853127       16.871178024776253
35                        -35                      -50                      8.074596028978753        156.20551244400554       -0.7138697012424515
40                        -35                      -50                      35.571971409585394       142.92312217472156       -25.087414053315
45                        -35                      -50                      54.865335720440626       130.4394206570602        -36.33179077198918
50                        -35                      -50                      62.80880783592566        117.8953330041938        -63.84071372681058
-50                       -30                      -50                      -468.63537741476716      143.38337381196015       -25.528070167317733
-45                       -30                      -50                      -454.4831502929199       148.32691260932037       -18.963591015169516
-40                       -30                      -50                      -441.5224078619846       156.30623774789834       -10.988131896747184
-35                       -30                      -50                      -423.3806067386978       165.44924160177348       -9.975365797170507
-30                       -30                      -50                      -403.56683546197064      168.81650306894696       -8.040845024673077
-25                       -30                      -50                      -383.3779633297623       172.57432631040382       -1.744044346479643
-20                       -30                      -50                      -360.10082582328744      180.9334006884352        -0.07820803678444938
-15                       -30                      -50                      -332.9558708818473       179.93667367692225       5.477176008571475
-10                       -30                      -50                      -307.0722386960725       179.12984646906003       17.71476650169164
-5                        -30                      -50                      -277.30362471458346      182.34249954991847       23.642827037582638
0                         -30                      -50                      -247.2755650524607       180.57118354979096       31.099430528674866
5                         -30                      -50                      -213.7012534462399       180.821287596514         31.321976953316117
10                        -30                      -50                      -177.36299608575627      178.7479853057795        35.514145729767854
15                        -30                      -50                      -140.7301285884267       179.13287754321254       39.58995936692327
20                        -30                      -50                      -106.49059241354023      172.66934181633627       36.25289010956423
25                        -30                      -50                      -67.76005762880588       169.85974750295563       29.848458795788012
30                        -30                      -50                      -32.57772283116959       160.26930462485473       20.88089351224415
35                        -30                      -50                      -6.004770112530216       146.4484696453007        1.9914115999043758
40                        -30                      -50                      25.28301982270685        140.22912118994682       -22.97398409567661
45                        -30                      -50                      37.48217828955318        124.47638389041809       -50.21720856344307
50                        -30                      -50                      52.085942483876714       109.05059439326227       -59.545992132978064
-50                       -25                      -50                      -468.6497965613406       140.8782129887017        -20.615801558953223
-45                       -25                      -50                      -453.496801399435        144.89843543391297       -16.776426221765796
-40                       -25                      -50                      -438.18217468913883      149.37007113627556       -10.422399670739432
-35                       -25                      -50                      -420.8358878396758       156.6029619663875        -9.797933559947149
-30                       -25                      -50                      -401.5594816271425       160.0187995218803        -2.001161546406999
-25                       -25                      -50                      -382.2830754146095       163.43463707737263       5.795610467133016
-20                       -25                      -50                      -356.6222901862905       163.83076436712398       5.296302153648196
-15                       -25                      -50                      -333.563127793659        167.36122122485136       13.810289655416817
-10                       -25                      -50                      -305.7653393395356       168.1166578703005        20.175129168541766
-5                        -25                      -50                      -277.9675508854122       168.8720945157499        26.53996868166739
0                         -25                      -50                      -250.1697624312886       169.62753116119856       32.90480819479264
5                         -25                      -50                      -213.90556875945012      166.83985492095485       33.4996146637258
10                        -25                      -50                      -180.81092220309114      167.941285722408         37.69472847126894
15                        -25                      -50                      -145.04746571424621      167.3931826973544        41.17851828794855
20                        -25                      -50                      -110.95958096111326      161.89344528532905       37.94200271277824
25                        -25                      -50                      -75.60368751668234       157.50027001405368       30.536956254239126
30                        -25                      -50                      -36.52088405034569       152.72731455571147       23.37914394908135
35                        -25                      -50                      -7.001655207541668       139.95947144271403       7.50863836766998
40                        -25                      -50                      14.700215517385876       130.30343561866195       -16.77008846279074
45                        -25                      -50                      26.762971347428298       116.09434054686284       -41.15734990206106
50                        -25                      -50                      42.242962699919346       107.38606758769575       -59.151398515530914
-50                       -20                      -50                      -465.2814614013549       134.73231640826526       -20.622615526794664
-45                       -20                      -50                      -450.1284662394503       138.75253885347573       -16.78324018960771
-40                       -20                      -50                      -438.45958133594513      145.4595187644876        -11.219156347187226
-35                       -20                      -50                      -421.5656700155399       150.5768225825067        -7.490988121873947
-30                       -20                      -50                      -402.87880845571146      154.05721789722648       0.6422083146083889
-25                       -20                      -50                      -384.19194689588255      157.5376132119453        8.775404751090896
-20                       -20                      -50                      -355.7597594078531       154.47429152201852       14.72285820431588
-15                       -20                      -50                      -330.67933823310267      157.10731567102076       18.783797191429812
-10                       -20                      -50                      -304.3322812001245       157.81596471339765       25.876451574931103
-5                        -20                      -50                      -277.9852241671472       158.52461375577414       32.9691059584328
0                         -20                      -50                      -251.63816713416975      159.23326279814998       40.06176034193342
5                         -20                      -50                      -207.806736869654        160.50613549331658       48.811410022610104
10                        -20                      -50                      -178.541204482862        158.06461915634938       40.8612884708107
15                        -20                      -50                      -149.36480284006564      155.65348785149615       42.76707720897325
20                        -20                      -50                      -114.38009321436103      151.64667981232358       42.01074460850174
25                        -20                      -50                      -79.35463547978489       148.29628803575395       36.06793106809071
30                        -20                      -50                      -45.419541565651656      143.78715808333183       20.95806203357449
35                        -20                      -50                      -12.90095574918205       133.4223908040213        7.284201253123745
40                        -20                      -50                      9.763735391436393        125.67808351206085       -10.077158965841052
45                        -20                      -50                      34.96411115443489        112.60393475147691       -28.8178960306612
50                        -20                      -50                      29.187000058042972       105.84472048023208       -56.40349200583837
-50                       -15                      -50                      -461.91312624137095      128.5864198278283        -20.62942949463637
-45                       -15                      -50                      -447.72594439421835      135.83442109569773       -15.210070220004546
-40                       -15                      -50                      -435.2815430775717       138.9937539457779        -10.778411255180464
-35                       -15                      -50                      -419.3310993951726       142.68993369264246       -7.097418447946896
-30                       -15                      -50                      -400.64423783534465      146.17032900736226       1.0357779885349019
-25                       -15                      -50                      -380.43825028408827      148.33493173642034       9.79199013605142
-20                       -15                      -50                      -357.30577575250254      147.74567235841482       15.60657825621861
-15                       -15                      -50                      -333.3707966578478       150.81215087476488       20.225349479654568
-10                       -15                      -50                      -306.4378166657578       152.47525760183464       28.00266409429931
-5                        -15                      -50                      -279.50483667366643      154.13836432890386       35.779978708943844
0                         -15                      -50                      -249.28932278092634      152.88837735668668       45.59737736176681
5                         -15                      -50                      -217.6185995620859       151.58524798017453       46.225404144389394
10                        -15                      -50                      -182.6591042320563       149.59164245981606       49.989031584028986
15                        -15                      -50                      -148.91508055517664      145.78895707339976       41.08290563492612
20                        -15                      -50                      -116.00648333072331      142.11663039504302       41.34993844804486
25                        -15                      -50                      -81.58387036150388       140.0847774703547        34.428677163963805
30                        -15                      -50                      -45.87282056755361       134.8655716090438        25.400839286538076
35                        -15                      -50                      -17.98447688959309       126.15710587666318       11.264625044945035
40                        -15                      -50                      9.702619473668525        116.4082641273349        -3.2451850125528314
45                        -15                      -50                      26.818651038245246       110.88361802013937       -27.852065764887858
50                        -15                      -50                      43.9346826028219         105.3589719129445        -52.45894651722268
-50                       -10                      -50                      -458.14507738079084      119.47551949396886       -18.928224779467534
-45                       -10                      -50                      -447.73185983053946      130.8321299445073        -16.200372796777916
-40                       -10                      -50                      -432.10350481919744      132.52798912706723       -10.33766616317236
-35                       -10                      -50                      -418.933056552205        135.05585366244392       -2.7624997663666218
-30                       -10                      -50                      -399.5666644352307       138.24232927286056       -0.5711845677395675
-25                       -10                      -50                      -378.97622339076906      138.5968147223117        9.621126723807725
-20                       -10                      -50                      -356.2081271251201       139.45638744256559       15.049654591976324
-15                       -10                      -50                      -333.4400308594708       140.31596016281966       20.478182460145735
-10                       -10                      -50                      -306.69232186988995      143.19333535874534       27.442168656849148
-5                        -10                      -50                      -278.604287608588        143.770324837041         36.04627068425669
0                         -10                      -50                      -248.84594653573993      142.38565205003022       43.11029071955371
5                         -10                      -50                      -218.76623315221298      141.70607194474164       45.719106709593085
10                        -10                      -50                      -184.15297550721644      140.3915398815226        51.66840174062776
15                        -10                      -50                      -150.60308508152735      138.96830341700783       48.20356777428375
20                        -10                      -50                      -112.06233651234578      138.34446006724332       42.29762362957434
25                        -10                      -50                      -83.81310524322326       131.87326690495541       32.789423259837406
30                        -10                      -50                      -50.63720158893669       124.31345886366148       24.96214027771903
35                        -10                      -50                      -22.31325234142284       123.11281432868621       14.096415594936268
40                        -10                      -50                      1.5571593574791562       114.68794739599704       -2.279354746779691
45                        -10                      -50                      21.537630606027868       110.48880144962165       -25.621974430120677
50                        -10                      -50                      36.543260678950176       104.46543848743208       -55.5447986127056
-50                       -5                       -50                      -469.3738954667355       110.57177073554705       -14.398264048570397
-45                       -5                       -50                      -451.35945524072605      120.90898743979949       -14.039550794635954
-40                       -5                       -50                      -433.64502457561         126.64198431062495       -11.063115646524034
-35                       -5                       -50                      -418.1560751012766       129.50574830127647       -7.571238963599409
-30                       -5                       -50                      -399.7392955926587       129.6675543364035        3.350207132297046
-25                       -5                       -50                      -378.86134505765165      129.90666438824758       10.655791130162532
-20                       -5                       -50                      -356.11044631046366      130.85279734788514       15.443620592432065
-15                       -5                       -50                      -333.3595475632755       131.79893030752228       20.231450054699973
-10                       -5                       -50                      -307.91925243624905      134.65227231739584       26.49516400674644
-5                        -5                       -50                      -279.2767729512196       134.74298963851533       35.766376689913486
0                         -5                       -50                      -249.99358012586646      132.50647601459713       42.60399328475752
5                         -5                       -50                      -219.91386674233974      131.82689590930872       45.212809274797166
10                        -5                       -50                      -185.8091378064939       131.49955767146992       50.50249484112331